Title: ******************************************************************
Date: Tue Jun 12 12:18:00 2018
Plotname: Transient Analysis
Flags: real
No. Variables: 3
No. Points: 6                 
Variables:
	0	time	time
	1	V(1)	voltage
	2	V1#branch	current
Values:
0	0.00000000e+00
	0.00000000e+00
	0.00000000e+00

1	2.00000000e-01
	2.00000000e-01
	-2.00000000e-01

2	4.00000000e-01
	4.00000000e-01
	-4.00000000e-01

3	6.00000000e-01
	6.00000000e-01
	-6.00000000e-01

4	8.00000000e-01
	8.00000000e-01
	-8.00000000e-01

5	1.00000000e+00
	1.00000000e+00
	-1.00000000e+00

