Title: TRAN test of output Raw format
Date: Tue Jul 09 02:43:17 2013
Plotname: Transient Analysis
Flags: real
No. Variables: 3
No. Points: 15353             
Version: (D)Release 6.0
Variables:
	0	TIME	time
	1	V(1)	voltage
	2	I(V1)	current
Values:
0	0.00000000e+00
	0.00000000e+00
	0.00000000e+00

1	1.00000000e-09
	6.27905195e-01
	-6.27905195e-02

2	1.51779321e-09
	9.52212731e-01
	-9.52212731e-02

3	2.03558642e-09
	1.27551248e+00
	-1.27551248e-01

4	2.55337964e-09
	1.59746228e+00
	-1.59746228e-01

5	3.07117285e-09
	1.91772138e+00
	-1.91772138e-01

6	3.58896606e-09
	2.23595084e+00
	-2.23595084e-01

7	4.10675927e-09
	2.55181386e+00
	-2.55181386e-01

8	4.62455248e-09
	2.86497613e+00
	-2.86497613e-01

9	5.14234570e-09
	3.17510623e+00
	-3.17510623e-01

10	5.66013891e-09
	3.48187591e+00
	-3.48187591e-01

11	6.17793212e-09
	3.78496050e+00
	-3.78496050e-01

12	6.69572533e-09
	4.08403924e+00
	-4.08403924e-01

13	7.21351854e-09
	4.37879559e+00
	-4.37879559e-01

14	7.73131176e-09
	4.66891759e+00
	-4.66891759e-01

15	8.24910497e-09
	4.95409819e+00
	-4.95409819e-01

16	8.76689818e-09
	5.23403556e+00
	-5.23403556e-01

17	9.28469139e-09
	5.50843342e+00
	-5.50843342e-01

18	9.80248460e-09
	5.77700137e+00
	-5.77700137e-01

19	1.03202778e-08
	6.03945516e+00
	-6.03945516e-01

20	1.08380710e-08
	6.29551702e+00
	-6.29551702e-01

21	1.13558642e-08
	6.54491595e+00
	-6.54491595e-01

22	1.18736575e-08
	6.78738799e+00
	-6.78738799e-01

23	1.23914507e-08
	7.02267652e+00
	-7.02267652e-01

24	1.29092439e-08
	7.25053252e+00
	-7.25053252e-01

25	1.34270371e-08
	7.47071483e+00
	-7.47071483e-01

26	1.39448303e-08
	7.68299042e+00
	-7.68299042e-01

27	1.44626235e-08
	7.88713463e+00
	-7.88713463e-01

28	1.49804167e-08
	8.08293140e+00
	-8.08293140e-01

29	1.54982099e-08
	8.27017350e+00
	-8.27017350e-01

30	1.60160031e-08
	8.44866276e+00
	-8.44866276e-01

31	1.65337964e-08
	8.61821029e+00
	-8.61821029e-01

32	1.70515896e-08
	8.77863663e+00
	-8.77863663e-01

33	1.75693828e-08
	8.92977200e+00
	-8.92977200e-01

34	1.80871760e-08
	9.07145643e+00
	-9.07145643e-01

35	1.86049692e-08
	9.20353999e+00
	-9.20353999e-01

36	1.91227624e-08
	9.32588287e+00
	-9.32588287e-01

37	1.96405556e-08
	9.43835559e+00
	-9.43835559e-01

38	2.01583488e-08
	9.54083912e+00
	-9.54083912e-01

39	2.06761421e-08
	9.63322499e+00
	-9.63322499e-01

40	2.11939353e-08
	9.71541542e+00
	-9.71541542e-01

41	2.17117285e-08
	9.78732343e+00
	-9.78732343e-01

42	2.22295217e-08
	9.84887291e+00
	-9.84887291e-01

43	2.27473149e-08
	9.89999872e+00
	-9.89999872e-01

44	2.32651081e-08
	9.94064675e+00
	-9.94064675e-01

45	2.37829013e-08
	9.97077398e+00
	-9.97077398e-01

46	2.43006945e-08
	9.99034852e+00
	-9.99034852e-01

47	2.48184878e-08
	9.99934967e+00
	-9.99934967e-01

48	2.53362810e-08
	9.99776788e+00
	-9.99776788e-01

49	2.58540742e-08
	9.98560483e+00
	-9.98560483e-01

50	2.63718674e-08
	9.96287341e+00
	-9.96287341e-01

51	2.68896606e-08
	9.92959766e+00
	-9.92959766e-01

52	2.74074538e-08
	9.88581280e+00
	-9.88581280e-01

53	2.79252470e-08
	9.83156518e+00
	-9.83156518e-01

54	2.89608334e-08
	9.69192230e+00
	-9.69192230e-01

55	2.99964199e-08
	9.51126004e+00
	-9.51126004e-01

56	3.10320063e-08
	9.29034302e+00
	-9.29034302e-01

57	3.20675927e-08
	9.03010624e+00
	-9.03010624e-01

58	3.31031791e-08
	8.73165109e+00
	-8.73165109e-01

59	3.41387656e-08
	8.39624073e+00
	-8.39624073e-01

60	3.51743520e-08
	8.02529475e+00
	-8.02529475e-01

61	3.62099384e-08
	7.62038309e+00
	-7.62038309e-01

62	3.72455248e-08
	7.18321948e+00
	-7.18321948e-01

63	3.82811113e-08
	6.71565414e+00
	-6.71565414e-01

64	3.93166977e-08
	6.21966595e+00
	-6.21966595e-01

65	4.03522841e-08
	5.69735411e+00
	-5.69735411e-01

66	4.13878705e-08
	5.15092920e+00
	-5.15092920e-01

67	4.24234570e-08
	4.58270387e+00
	-4.58270387e-01

68	4.34590434e-08
	3.99508305e+00
	-3.99508305e-01

69	4.44946298e-08
	3.39055372e+00
	-3.39055372e-01

70	4.55302162e-08
	2.77167447e+00
	-2.77167447e-01

71	4.65658027e-08
	2.14106458e+00
	-2.14106458e-01

72	4.76013891e-08
	1.50139301e+00
	-1.50139301e-01

73	4.86369755e-08
	8.55367049e-01
	-8.55367049e-02

74	4.96725619e-08
	2.05720897e-01
	-2.05720897e-02

75	5.02892979e-08
	-1.81761212e-01
	1.81761212e-02

76	5.08263465e-08
	-5.18975572e-01
	5.18975572e-02

77	5.13633951e-08
	-8.55599061e-01
	8.55599061e-02

78	5.19004437e-08
	-1.19124842e+00
	1.19124842e-01

79	5.24374924e-08
	-1.52554151e+00
	1.52554151e-01

80	5.29745410e-08
	-1.85809771e+00
	1.85809771e-01

81	5.35115896e-08
	-2.18853841e+00
	2.18853841e-01

82	5.40486382e-08
	-2.51648739e+00
	2.51648739e-01

83	5.45856868e-08
	-2.84157126e+00
	2.84157126e-01

84	5.51227354e-08
	-3.16341991e+00
	3.16341991e-01

85	5.56597841e-08
	-3.48166689e+00
	3.48166689e-01

86	5.61968327e-08
	-3.79594989e+00
	3.79594989e-01

87	5.67338813e-08
	-4.10591107e+00
	4.10591107e-01

88	5.72709299e-08
	-4.41119753e+00
	4.41119753e-01

89	5.78079785e-08
	-4.71146170e+00
	4.71146170e-01

90	5.83450271e-08
	-5.00636171e+00
	5.00636171e-01

91	5.88820757e-08
	-5.29556181e+00
	5.29556181e-01

92	5.94191244e-08
	-5.57873274e+00
	5.57873274e-01

93	5.99561730e-08
	-5.85555210e+00
	5.85555210e-01

94	6.04932216e-08
	-6.12570471e+00
	6.12570471e-01

95	6.10302702e-08
	-6.38888301e+00
	6.38888301e-01

96	6.15673188e-08
	-6.64478735e+00
	6.64478735e-01

97	6.21043674e-08
	-6.89312638e+00
	6.89312638e-01

98	6.26414161e-08
	-7.13361736e+00
	7.13361736e-01

99	6.31784647e-08
	-7.36598647e+00
	7.36598647e-01

100	6.37155133e-08
	-7.58996916e+00
	7.58996916e-01

101	6.42525619e-08
	-7.80531042e+00
	7.80531042e-01

102	6.47896105e-08
	-8.01176508e+00
	8.01176508e-01

103	6.53266591e-08
	-8.20909807e+00
	8.20909807e-01

104	6.58637078e-08
	-8.39708474e+00
	8.39708474e-01

105	6.64007564e-08
	-8.57551104e+00
	8.57551104e-01

106	6.69378050e-08
	-8.74417384e+00
	8.74417384e-01

107	6.74748536e-08
	-8.90288110e+00
	8.90288110e-01

108	6.80119022e-08
	-9.05145214e+00
	9.05145214e-01

109	6.85489508e-08
	-9.18971780e+00
	9.18971780e-01

110	6.90859995e-08
	-9.31752066e+00
	9.31752066e-01

111	6.96230481e-08
	-9.43471521e+00
	9.43471521e-01

112	7.01600967e-08
	-9.54116802e+00
	9.54116802e-01

113	7.06971453e-08
	-9.63675790e+00
	9.63675790e-01

114	7.12341939e-08
	-9.72137601e+00
	9.72137601e-01

115	7.17712425e-08
	-9.79492600e+00
	9.79492600e-01

116	7.23082912e-08
	-9.85732415e+00
	9.85732415e-01

117	7.28453398e-08
	-9.90849941e+00
	9.90849941e-01

118	7.33823884e-08
	-9.94839351e+00
	9.94839351e-01

119	7.39194370e-08
	-9.97696103e+00
	9.97696103e-01

120	7.44564856e-08
	-9.99416945e+00
	9.99416945e-01

121	7.49935342e-08
	-9.99999917e+00
	9.99999917e-01

122	7.55305829e-08
	-9.99444357e+00
	9.99444357e-01

123	7.60676315e-08
	-9.97750896e+00
	9.97750896e-01

124	7.66046801e-08
	-9.94921462e+00
	9.94921462e-01

125	7.71417287e-08
	-9.90959277e+00
	9.90959277e-01

126	7.76787773e-08
	-9.85868851e+00
	9.85868851e-01

127	7.82158259e-08
	-9.79655982e+00
	9.79655982e-01

128	7.87528746e-08
	-9.72327741e+00
	9.72327741e-01

129	7.92899232e-08
	-9.63892473e+00
	9.63892473e-01

130	7.98269718e-08
	-9.54359781e+00
	9.54359781e-01

131	8.03640204e-08
	-9.43740519e+00
	9.43740519e-01

132	8.09010690e-08
	-9.32046777e+00
	9.32046777e-01

133	8.14381176e-08
	-9.19291868e+00
	9.19291868e-01

134	8.19751663e-08
	-9.05490315e+00
	9.05490315e-01

135	8.25122149e-08
	-8.90657832e+00
	8.90657832e-01

136	8.30492635e-08
	-8.74811304e+00
	8.74811304e-01

137	8.35863121e-08
	-8.57968775e+00
	8.57968775e-01

138	8.41233607e-08
	-8.40149420e+00
	8.40149420e-01

139	8.46604093e-08
	-8.21373527e+00
	8.21373527e-01

140	8.51974580e-08
	-8.01662473e+00
	8.01662473e-01

141	8.57345066e-08
	-7.81038699e+00
	7.81038699e-01

142	8.62715552e-08
	-7.59525687e+00
	7.59525687e-01

143	8.68086038e-08
	-7.37147929e+00
	7.37147929e-01

144	8.73456524e-08
	-7.13930904e+00
	7.13930904e-01

145	8.78827010e-08
	-6.89901045e+00
	6.89901045e-01

146	8.84197497e-08
	-6.65085711e+00
	6.65085711e-01

147	8.89567983e-08
	-6.39513154e+00
	6.39513154e-01

148	8.94938469e-08
	-6.13212491e+00
	6.13212491e-01

149	9.00308955e-08
	-5.86213664e+00
	5.86213664e-01

150	9.05679441e-08
	-5.58547414e+00
	5.58547414e-01

151	9.11049927e-08
	-5.30245239e+00
	5.30245239e-01

152	9.16420414e-08
	-5.01339362e+00
	5.01339362e-01

153	9.21790900e-08
	-4.71862694e+00
	4.71862694e-01

154	9.27161386e-08
	-4.41848794e+00
	4.41848794e-01

155	9.32531872e-08
	-4.11331834e+00
	4.11331834e-01

156	9.37902358e-08
	-3.80346560e+00
	3.80346560e-01

157	9.43272844e-08
	-3.48928248e+00
	3.48928248e-01

158	9.54013817e-08
	-2.84936049e+00
	2.84936049e-01

159	9.64754789e-08
	-2.19646582e+00
	2.19646582e-01

160	9.75495761e-08
	-1.53357101e+00
	1.53357101e-01

161	9.86236734e-08
	-8.63694089e-01
	8.63694089e-02

162	9.96977706e-08
	-1.89884915e-01
	1.89884915e-02

163	1.00275963e-07
	1.73384197e-01
	-1.73384197e-02

164	1.00787629e-07
	4.94679768e-01
	-4.94679768e-02

165	1.01299294e-07
	8.15464107e-01
	-8.15464107e-02

166	1.01810960e-07
	1.13540569e+00
	-1.13540569e-01

167	1.02322625e-07
	1.45417388e+00
	-1.45417388e-01

168	1.02834290e-07
	1.77143924e+00
	-1.77143924e-01

169	1.03345956e-07
	2.08687388e+00
	-2.08687388e-01

170	1.03857621e-07
	2.40015181e+00
	-2.40015181e-01

171	1.04369287e-07
	2.71094929e+00
	-2.71094929e-01

172	1.04880952e-07
	3.01894509e+00
	-3.01894509e-01

173	1.05392617e-07
	3.32382094e+00
	-3.32382094e-01

174	1.05904283e-07
	3.62526174e+00
	-3.62526174e-01

175	1.06415948e-07
	3.92295597e+00
	-3.92295597e-01

176	1.06927614e-07
	4.21659598e+00
	-4.21659598e-01

177	1.07439279e-07
	4.50587829e+00
	-4.50587829e-01

178	1.07950944e-07
	4.79050395e+00
	-4.79050395e-01

179	1.08462610e-07
	5.07017881e+00
	-5.07017881e-01

180	1.08974275e-07
	5.34461384e+00
	-5.34461384e-01

181	1.09485941e-07
	5.61352540e+00
	-5.61352540e-01

182	1.09997606e-07
	5.87663561e+00
	-5.87663561e-01

183	1.10509272e-07
	6.13367253e+00
	-6.13367253e-01

184	1.11020937e-07
	6.38437054e+00
	-6.38437054e-01

185	1.11532602e-07
	6.62847055e+00
	-6.62847055e-01

186	1.12044268e-07
	6.86572028e+00
	-6.86572028e-01

187	1.12555933e-07
	7.09587456e+00
	-7.09587456e-01

188	1.13067599e-07
	7.31869551e+00
	-7.31869551e-01

189	1.13579264e-07
	7.53395288e+00
	-7.53395288e-01

190	1.14090929e-07
	7.74142419e+00
	-7.74142419e-01

191	1.14602595e-07
	7.94089504e+00
	-7.94089504e-01

192	1.15114260e-07
	8.13215927e+00
	-8.13215927e-01

193	1.15625926e-07
	8.31501923e+00
	-8.31501923e-01

194	1.16137591e-07
	8.48928593e+00
	-8.48928593e-01

195	1.16649256e-07
	8.65477928e+00
	-8.65477928e-01

196	1.17160922e-07
	8.81132825e+00
	-8.81132825e-01

197	1.18184253e-07
	9.09695529e+00
	-9.09695529e-01

198	1.19207584e-07
	9.34498662e+00
	-9.34498662e-01

199	1.20230914e-07
	9.55439718e+00
	-9.55439718e-01

200	1.21254245e-07
	9.72432153e+00
	-9.72432153e-01

201	1.22277576e-07
	9.85405740e+00
	-9.85405740e-01

202	1.23300907e-07
	9.94306863e+00
	-9.94306863e-01

203	1.24324238e-07
	9.99098735e+00
	-9.99098735e-01

204	1.25347568e-07
	9.99761552e+00
	-9.99761552e-01

205	1.26370899e-07
	9.96292576e+00
	-9.96292576e-01

206	1.27394230e-07
	9.88706142e+00
	-9.88706142e-01

207	1.28417561e-07
	9.77033603e+00
	-9.77033603e-01

208	1.29440892e-07
	9.61323201e+00
	-9.61323201e-01

209	1.30464223e-07
	9.41639862e+00
	-9.41639862e-01

210	1.31487553e-07
	9.18064933e+00
	-9.18064933e-01

211	1.32510884e-07
	8.90695844e+00
	-8.90695844e-01

212	1.33534215e-07
	8.59645706e+00
	-8.59645706e-01

213	1.34557546e-07
	8.25042842e+00
	-8.25042842e-01

214	1.35580877e-07
	7.87030257e+00
	-7.87030257e-01

215	1.36604207e-07
	7.45765051e+00
	-7.45765051e-01

216	1.37627538e-07
	7.01417762e+00
	-7.01417762e-01

217	1.38650869e-07
	6.54171668e+00
	-6.54171668e-01

218	1.39674200e-07
	6.04222027e+00
	-6.04222027e-01

219	1.40697531e-07
	5.51775270e+00
	-5.51775270e-01

220	1.41720862e-07
	4.97048147e+00
	-4.97048147e-01

221	1.42744192e-07
	4.40266834e+00
	-4.40266834e-01

222	1.43767523e-07
	3.81665995e+00
	-3.81665995e-01

223	1.44790854e-07
	3.21487815e+00
	-3.21487815e-01

224	1.45814185e-07
	2.59980997e+00
	-2.59980997e-01

225	1.46837516e-07
	1.97399735e+00
	-1.97399735e-01

226	1.47860846e-07
	1.34002663e+00
	-1.34002663e-01

227	1.48884177e-07
	7.00517873e-01
	-7.00517873e-02

228	1.49907508e-07
	5.81140336e-02
	-5.81140336e-03

229	1.50035424e-07
	-2.22578356e-02
	2.22578356e-03

230	1.50163341e-07
	-1.02628267e-01
	1.02628267e-02

231	1.50291257e-07
	-1.82992069e-01
	1.82992069e-02

232	1.50547090e-07
	-3.43679020e-01
	3.43679020e-02

233	1.51058755e-07
	-6.64745026e-01
	6.64745026e-02

234	1.51570421e-07
	-9.85124043e-01
	9.85124043e-02

235	1.52082086e-07
	-1.30448497e+00
	1.30448497e-01

236	1.52593752e-07
	-1.62249777e+00
	1.62249777e-01

237	1.53105417e-07
	-1.93883377e+00
	1.93883377e-01

238	1.53617082e-07
	-2.25316606e+00
	2.25316606e-01

239	1.54128748e-07
	-2.56516979e+00
	2.56516979e-01

240	1.54640413e-07
	-2.87452252e+00
	2.87452252e-01

241	1.55152079e-07
	-3.18090454e+00
	3.18090454e-01

242	1.55663744e-07
	-3.48399921e+00
	3.48399921e-01

243	1.56175409e-07
	-3.78349331e+00
	3.78349331e-01

244	1.56687075e-07
	-4.07907731e+00
	4.07907731e-01

245	1.57198740e-07
	-4.37044573e+00
	4.37044573e-01

246	1.57710406e-07
	-4.65729747e+00
	4.65729747e-01

247	1.58222071e-07
	-4.93933607e+00
	4.93933607e-01

248	1.58733736e-07
	-5.21627005e+00
	5.21627005e-01

249	1.59245402e-07
	-5.48781322e+00
	5.48781322e-01

250	1.59757067e-07
	-5.75368494e+00
	5.75368494e-01

251	1.60268733e-07
	-6.01361045e+00
	6.01361045e-01

252	1.60780398e-07
	-6.26732112e+00
	6.26732112e-01

253	1.61292063e-07
	-6.51455476e+00
	6.51455476e-01

254	1.61803729e-07
	-6.75505585e+00
	6.75505585e-01

255	1.62315394e-07
	-6.98857584e+00
	6.98857584e-01

256	1.62827060e-07
	-7.21487341e+00
	7.21487341e-01

257	1.63338725e-07
	-7.43371469e+00
	7.43371469e-01

258	1.63850391e-07
	-7.64487350e+00
	7.64487350e-01

259	1.64362056e-07
	-7.84813163e+00
	7.84813163e-01

260	1.64873721e-07
	-8.04327902e+00
	8.04327902e-01

261	1.65385387e-07
	-8.23011398e+00
	8.23011398e-01

262	1.65897052e-07
	-8.40844343e+00
	8.40844343e-01

263	1.66408718e-07
	-8.57808308e+00
	8.57808308e-01

264	1.66920383e-07
	-8.73885761e+00
	8.73885761e-01

265	1.67432048e-07
	-8.89060086e+00
	8.89060086e-01

266	1.68455379e-07
	-9.16637574e+00
	9.16637574e-01

267	1.69478710e-07
	-9.40426802e+00
	9.40426802e-01

268	1.70502041e-07
	-9.60329453e+00
	9.60329453e-01

269	1.71525372e-07
	-9.76263275e+00
	9.76263275e-01

270	1.72548703e-07
	-9.88162416e+00
	9.88162416e-01

271	1.73572033e-07
	-9.95977699e+00
	9.95977699e-01

272	1.74595364e-07
	-9.99676827e+00
	9.99676827e-01

273	1.75618695e-07
	-9.99244511e+00
	9.99244511e-01

274	1.76642026e-07
	-9.94682538e+00
	9.94682538e-01

275	1.77665357e-07
	-9.86009761e+00
	9.86009761e-01

276	1.78688687e-07
	-9.73262023e+00
	9.73262023e-01

277	1.79712018e-07
	-9.56492009e+00
	9.56492009e-01

278	1.80735349e-07
	-9.35769024e+00
	9.35769024e-01

279	1.81758680e-07
	-9.11178712e+00
	9.11178712e-01

280	1.82782011e-07
	-8.82822699e+00
	8.82822699e-01

281	1.83805342e-07
	-8.50818175e+00
	8.50818175e-01

282	1.84828672e-07
	-8.15297408e+00
	8.15297408e-01

283	1.85852003e-07
	-7.76407196e+00
	7.76407196e-01

284	1.86875334e-07
	-7.34308264e+00
	7.34308264e-01

285	1.87898665e-07
	-6.89174599e+00
	6.89174599e-01

286	1.88921996e-07
	-6.41192726e+00
	6.41192726e-01

287	1.89945326e-07
	-5.90560946e+00
	5.90560946e-01

288	1.90968657e-07
	-5.37488508e+00
	5.37488508e-01

289	1.91991988e-07
	-4.82194748e+00
	4.82194748e-01

290	1.93015319e-07
	-4.24908184e+00
	4.24908184e-01

291	1.94038650e-07
	-3.65865568e+00
	3.65865568e-01

292	1.95061981e-07
	-3.05310910e+00
	3.05310910e-01

293	1.96085311e-07
	-2.43494470e+00
	2.43494470e-01

294	1.97108642e-07
	-1.80671721e+00
	1.80671721e-01

295	1.98131973e-07
	-1.17102295e+00
	1.17102295e-01

296	1.99155304e-07
	-5.30489120e-01
	5.30489120e-02

297	2.00178635e-07
	1.12237109e-01
	-1.12237109e-02

298	2.00690300e-07
	4.33592349e-01
	-4.33592349e-02

299	2.01713631e-07
	1.07462688e+00
	-1.07462688e-01

300	2.02634629e-07
	1.64783591e+00
	-1.64783591e-01

301	2.03555626e-07
	2.21552836e+00
	-2.21552836e-01

302	2.04476624e-07
	2.77580373e+00
	-2.77580373e-01

303	2.05397622e-07
	3.32678635e+00
	-3.32678635e-01

304	2.06318620e-07
	3.86663165e+00
	-3.86663165e-01

305	2.07239617e-07
	4.39353236e+00
	-4.39353236e-01

306	2.08160615e-07
	4.90572453e+00
	-4.90572453e-01

307	2.09081613e-07
	5.40149346e+00
	-5.40149346e-01

308	2.10002611e-07
	5.87917943e+00
	-5.87917943e-01

309	2.10923608e-07
	6.33718326e+00
	-6.33718326e-01

310	2.11844606e-07
	6.77397165e+00
	-6.77397165e-01

311	2.12765604e-07
	7.18808234e+00
	-7.18808234e-01

312	2.13686601e-07
	7.57812898e+00
	-7.57812898e-01

313	2.14607599e-07
	7.94280579e+00
	-7.94280579e-01

314	2.15528597e-07
	8.28089190e+00
	-8.28089190e-01

315	2.16449595e-07
	8.59125549e+00
	-8.59125549e-01

316	2.17370592e-07
	8.87285753e+00
	-8.87285753e-01

317	2.18291590e-07
	9.12475528e+00
	-9.12475528e-01

318	2.19212588e-07
	9.34610544e+00
	-9.34610544e-01

319	2.20133586e-07
	9.53616699e+00
	-9.53616699e-01

320	2.21054583e-07
	9.69430364e+00
	-9.69430364e-01

321	2.21975581e-07
	9.81998599e+00
	-9.81998599e-01

322	2.22896579e-07
	9.91279328e+00
	-9.91279328e-01

323	2.23817577e-07
	9.97241481e+00
	-9.97241481e-01

324	2.24738574e-07
	9.99865099e+00
	-9.99865099e-01

325	2.25659572e-07
	9.99141398e+00
	-9.99141398e-01

326	2.26580570e-07
	9.95072801e+00
	-9.95072801e-01

327	2.27501568e-07
	9.87672928e+00
	-9.87672928e-01

328	2.28422565e-07
	9.76966554e+00
	-9.76966554e-01

329	2.29343563e-07
	9.62989519e+00
	-9.62989519e-01

330	2.30264561e-07
	9.45788617e+00
	-9.45788617e-01

331	2.31185559e-07
	9.25421432e+00
	-9.25421432e-01

332	2.32106556e-07
	9.01956148e+00
	-9.01956148e-01

333	2.33027554e-07
	8.75471323e+00
	-8.75471323e-01

334	2.33948552e-07
	8.46055620e+00
	-8.46055620e-01

335	2.34869549e-07
	8.13807517e+00
	-8.13807517e-01

336	2.35790547e-07
	7.78834973e+00
	-7.78834973e-01

337	2.36711545e-07
	7.41255069e+00
	-7.41255069e-01

338	2.37632543e-07
	7.01193613e+00
	-7.01193613e-01

339	2.38553540e-07
	6.58784722e+00
	-6.58784722e-01

340	2.39474538e-07
	6.14170371e+00
	-6.14170371e-01

341	2.40395536e-07
	5.67499918e+00
	-5.67499918e-01

342	2.41316534e-07
	5.18929606e+00
	-5.18929606e-01

343	2.42237531e-07
	4.68622037e+00
	-4.68622037e-01

344	2.43158529e-07
	4.16745629e+00
	-4.16745629e-01

345	2.44079527e-07
	3.63474052e+00
	-3.63474052e-01

346	2.45000525e-07
	3.08985647e+00
	-3.08985647e-01

347	2.45921522e-07
	2.53462830e+00
	-2.53462830e-01

348	2.46842520e-07
	1.97091477e+00
	-1.97091477e-01

349	2.47763518e-07
	1.40060307e+00
	-1.40060307e-01

350	2.48684516e-07
	8.25602470e-01
	-8.25602470e-02

351	2.49605513e-07
	2.47837945e-01
	-2.47837945e-02

352	2.50338472e-07
	-2.12652144e-01
	2.12652144e-02

353	2.50947937e-07
	-5.95254456e-01
	5.95254456e-02

354	2.51557403e-07
	-9.76983984e-01
	9.76983984e-02

355	2.52105921e-07
	-1.31933169e+00
	1.31933169e-01

356	2.52654440e-07
	-1.66011245e+00
	1.66011245e-01

357	2.53202959e-07
	-1.99892153e+00
	1.99892153e-01

358	2.53751478e-07
	-2.33535652e+00
	2.33535652e-01

359	2.54299997e-07
	-2.66901786e+00
	2.66901786e-01

360	2.54848515e-07
	-2.99950926e+00
	2.99950926e-01

361	2.55397034e-07
	-3.32643819e+00
	3.32643819e-01

362	2.55945553e-07
	-3.64941638e+00
	3.64941638e-01

363	2.56494072e-07
	-3.96806023e+00
	3.96806023e-01

364	2.57042591e-07
	-4.28199129e+00
	4.28199129e-01

365	2.57591110e-07
	-4.59083670e+00
	4.59083670e-01

366	2.58139628e-07
	-4.89422967e+00
	4.89422967e-01

367	2.58688147e-07
	-5.19180985e+00
	5.19180985e-01

368	2.59236666e-07
	-5.48322382e+00
	5.48322382e-01

369	2.59785185e-07
	-5.76812547e+00
	5.76812547e-01

370	2.60333704e-07
	-6.04617643e+00
	6.04617643e-01

371	2.60882222e-07
	-6.31704646e+00
	6.31704646e-01

372	2.61430741e-07
	-6.58041385e+00
	6.58041385e-01

373	2.61979260e-07
	-6.83596581e+00
	6.83596581e-01

374	2.62527779e-07
	-7.08339883e+00
	7.08339883e-01

375	2.63076298e-07
	-7.32241902e+00
	7.32241902e-01

376	2.63624816e-07
	-7.55274252e+00
	7.55274252e-01

377	2.64173335e-07
	-7.77409577e+00
	7.77409577e-01

378	2.64721854e-07
	-7.98621587e+00
	7.98621587e-01

379	2.65270373e-07
	-8.18885090e+00
	8.18885090e-01

380	2.65818892e-07
	-8.38176018e+00
	8.38176018e-01

381	2.66367410e-07
	-8.56471461e+00
	8.56471461e-01

382	2.66915929e-07
	-8.73749689e+00
	8.73749689e-01

383	2.67464448e-07
	-8.89990181e+00
	8.89990181e-01

384	2.68012967e-07
	-9.05173649e+00
	9.05173649e-01

385	2.68561486e-07
	-9.19282059e+00
	9.19282059e-01

386	2.69110005e-07
	-9.32298655e+00
	9.32298655e-01

387	2.69658523e-07
	-9.44207978e+00
	9.44207978e-01

388	2.70207042e-07
	-9.54995883e+00
	9.54995883e-01

389	2.70755561e-07
	-9.64649558e+00
	9.64649558e-01

390	2.71304080e-07
	-9.73157536e+00
	9.73157536e-01

391	2.71852599e-07
	-9.80509715e+00
	9.80509715e-01

392	2.72401117e-07
	-9.86697360e+00
	9.86697360e-01

393	2.72949636e-07
	-9.91713123e+00
	9.91713123e-01

394	2.73498155e-07
	-9.95551048e+00
	9.95551048e-01

395	2.74046674e-07
	-9.98206576e+00
	9.98206576e-01

396	2.74595193e-07
	-9.99676553e+00
	9.99676553e-01

397	2.75143711e-07
	-9.99959233e+00
	9.99959233e-01

398	2.75692230e-07
	-9.99054280e+00
	9.99054280e-01

399	2.76240749e-07
	-9.96962770e+00
	9.96962770e-01

400	2.76789268e-07
	-9.93687186e+00
	9.93687186e-01

401	2.77337787e-07
	-9.89231419e+00
	9.89231419e-01

402	2.77886305e-07
	-9.83600760e+00
	9.83600760e-01

403	2.78434824e-07
	-9.76801898e+00
	9.76801898e-01

404	2.78983343e-07
	-9.68842906e+00
	9.68842906e-01

405	2.79531862e-07
	-9.59733238e+00
	9.59733238e-01

406	2.80080381e-07
	-9.49483713e+00
	9.49483713e-01

407	2.80628899e-07
	-9.38106505e+00
	9.38106505e-01

408	2.81177418e-07
	-9.25615125e+00
	9.25615125e-01

409	2.81725937e-07
	-9.12024410e+00
	9.12024410e-01

410	2.82274456e-07
	-8.97350500e+00
	8.97350500e-01

411	2.82822975e-07
	-8.81610825e+00
	8.81610825e-01

412	2.83371494e-07
	-8.64824077e+00
	8.64824077e-01

413	2.83920012e-07
	-8.47010194e+00
	8.47010194e-01

414	2.84468531e-07
	-8.28190333e+00
	8.28190333e-01

415	2.85017050e-07
	-8.08386847e+00
	8.08386847e-01

416	2.85565569e-07
	-7.87623254e+00
	7.87623254e-01

417	2.86114088e-07
	-7.65924217e+00
	7.65924217e-01

418	2.86662606e-07
	-7.43315506e+00
	7.43315506e-01

419	2.87211125e-07
	-7.19823973e+00
	7.19823973e-01

420	2.87759644e-07
	-6.95477519e+00
	6.95477519e-01

421	2.88308163e-07
	-6.70305060e+00
	6.70305060e-01

422	2.88856682e-07
	-6.44336491e+00
	6.44336491e-01

423	2.89405200e-07
	-6.17602657e+00
	6.17602657e-01

424	2.89953719e-07
	-5.90135308e+00
	5.90135308e-01

425	2.90502238e-07
	-5.61967067e+00
	5.61967067e-01

426	2.91050757e-07
	-5.33131387e+00
	5.33131387e-01

427	2.91599276e-07
	-5.03662518e+00
	5.03662518e-01

428	2.92147794e-07
	-4.73595459e+00
	4.73595459e-01

429	2.92696313e-07
	-4.42965919e+00
	4.42965919e-01

430	2.93244832e-07
	-4.11810277e+00
	4.11810277e-01

431	2.93793351e-07
	-3.80165535e+00
	3.80165535e-01

432	2.94341870e-07
	-3.48069279e+00
	3.48069279e-01

433	2.94890389e-07
	-3.15559627e+00
	3.15559627e-01

434	2.95438907e-07
	-2.82675191e+00
	2.82675191e-01

435	2.95987426e-07
	-2.49455026e+00
	2.49455026e-01

436	2.97084464e-07
	-1.82165686e+00
	1.82165686e-01

437	2.98181501e-07
	-1.14011184e+00
	1.14011184e-01

438	2.99278539e-07
	-4.53152071e-01
	4.53152071e-02

439	3.00375577e-07
	2.35959860e-01
	-2.35959860e-02

440	3.01115844e-07
	7.00531425e-01
	-7.00531425e-02

441	3.01782085e-07
	1.11737887e+00
	-1.11737887e-01

442	3.02381702e-07
	1.49088843e+00
	-1.49088843e-01

443	3.02981319e-07
	1.86228207e+00
	-1.86228207e-01

444	3.03520974e-07
	2.19429150e+00
	-2.19429150e-01

445	3.04060629e-07
	2.52377835e+00
	-2.52377835e-01

446	3.04600284e-07
	2.85036384e+00
	-2.85036384e-01

447	3.05139939e-07
	3.17367252e+00
	-3.17367252e-01

448	3.05679595e-07
	3.49333272e+00
	-3.49333272e-01

449	3.06219250e-07
	3.80897694e+00
	-3.80897694e-01

450	3.06758905e-07
	4.12024232e+00
	-4.12024232e-01

451	3.07298560e-07
	4.42677103e+00
	-4.42677103e-01

452	3.07838215e-07
	4.72821067e+00
	-4.72821067e-01

453	3.08377870e-07
	5.02421471e+00
	-5.02421471e-01

454	3.08917525e-07
	5.31444286e+00
	-5.31444286e-01

455	3.09457181e-07
	5.59856148e+00
	-5.59856148e-01

456	3.09996836e-07
	5.87624392e+00
	-5.87624392e-01

457	3.10536491e-07
	6.14717098e+00
	-6.14717098e-01

458	3.11076146e-07
	6.41103118e+00
	-6.41103118e-01

459	3.11615801e-07
	6.66752119e+00
	-6.66752119e-01

460	3.12155456e-07
	6.91634615e+00
	-6.91634615e-01

461	3.12695111e-07
	7.15722000e+00
	-7.15722000e-01

462	3.13234767e-07
	7.38986584e+00
	-7.38986584e-01

463	3.13774422e-07
	7.61401621e+00
	-7.61401621e-01

464	3.14314077e-07
	7.82941343e+00
	-7.82941343e-01

465	3.14853732e-07
	8.03580986e+00
	-8.03580986e-01

466	3.15393387e-07
	8.23296825e+00
	-8.23296825e-01

467	3.15933042e-07
	8.42066193e+00
	-8.42066193e-01

468	3.16472697e-07
	8.59867513e+00
	-8.59867513e-01

469	3.17012352e-07
	8.76680320e+00
	-8.76680320e-01

470	3.17552008e-07
	8.92485286e+00
	-8.92485286e-01

471	3.18091663e-07
	9.07264241e+00
	-9.07264241e-01

472	3.18631318e-07
	9.21000196e+00
	-9.21000196e-01

473	3.19170973e-07
	9.33677359e+00
	-9.33677359e-01

474	3.19710628e-07
	9.45281157e+00
	-9.45281157e-01

475	3.20250283e-07
	9.55798249e+00
	-9.55798249e-01

476	3.20789938e-07
	9.65216546e+00
	-9.65216546e-01

477	3.21329594e-07
	9.73525220e+00
	-9.73525220e-01

478	3.21869249e-07
	9.80714718e+00
	-9.80714718e-01

479	3.22408904e-07
	9.86776777e+00
	-9.86776777e-01

480	3.22948559e-07
	9.91704426e+00
	-9.91704426e-01

481	3.23488214e-07
	9.95492002e+00
	-9.95492002e-01

482	3.24027869e-07
	9.98135150e+00
	-9.98135150e-01

483	3.24567524e-07
	9.99630830e+00
	-9.99630830e-01

484	3.25107180e-07
	9.99977325e+00
	-9.99977325e-01

485	3.25646835e-07
	9.99174235e+00
	-9.99174235e-01

486	3.26186490e-07
	9.97222483e+00
	-9.97222483e-01

487	3.26726145e-07
	9.94124315e+00
	-9.94124315e-01

488	3.27265800e-07
	9.89883290e+00
	-9.89883290e-01

489	3.27805455e-07
	9.84504285e+00
	-9.84504285e-01

490	3.28345110e-07
	9.77993483e+00
	-9.77993483e-01

491	3.28884766e-07
	9.70358370e+00
	-9.70358370e-01

492	3.29424421e-07
	9.61607722e+00
	-9.61607722e-01

493	3.29964076e-07
	9.51751600e+00
	-9.51751600e-01

494	3.30503731e-07
	9.40801335e+00
	-9.40801335e-01

495	3.31043386e-07
	9.28769514e+00
	-9.28769514e-01

496	3.31583041e-07
	9.15669969e+00
	-9.15669969e-01

497	3.32122696e-07
	9.01517761e+00
	-9.01517761e-01

498	3.32662352e-07
	8.86329159e+00
	-8.86329159e-01

499	3.33202007e-07
	8.70121623e+00
	-8.70121623e-01

500	3.33741662e-07
	8.52913786e+00
	-8.52913786e-01

501	3.34281317e-07
	8.34725430e+00
	-8.34725430e-01

502	3.34820972e-07
	8.15577466e+00
	-8.15577466e-01

503	3.35360627e-07
	7.95491904e+00
	-7.95491904e-01

504	3.35900282e-07
	7.74491837e+00
	-7.74491837e-01

505	3.36439938e-07
	7.52601405e+00
	-7.52601405e-01

506	3.36979593e-07
	7.29845776e+00
	-7.29845776e-01

507	3.37519248e-07
	7.06251107e+00
	-7.06251107e-01

508	3.38058903e-07
	6.81844525e+00
	-6.81844525e-01

509	3.38598558e-07
	6.56654087e+00
	-6.56654087e-01

510	3.39138213e-07
	6.30708753e+00
	-6.30708753e-01

511	3.39677868e-07
	6.04038349e+00
	-6.04038349e-01

512	3.40217523e-07
	5.76673537e+00
	-5.76673537e-01

513	3.40757179e-07
	5.48645774e+00
	-5.48645774e-01

514	3.41296834e-07
	5.19987282e+00
	-5.19987282e-01

515	3.41836489e-07
	4.90731008e+00
	-4.90731008e-01

516	3.42376144e-07
	4.60910584e+00
	-4.60910584e-01

517	3.42915799e-07
	4.30560292e+00
	-4.30560292e-01

518	3.43455454e-07
	3.99715023e+00
	-3.99715023e-01

519	3.43995109e-07
	3.68410238e+00
	-3.68410238e-01

520	3.44534765e-07
	3.36681925e+00
	-3.36681925e-01

521	3.45614075e-07
	2.72101059e+00
	-2.72101059e-01

522	3.46693385e-07
	2.06269311e+00
	-2.06269311e-01

523	3.47772695e-07
	1.39489319e+00
	-1.39489319e-01

524	3.48852006e-07
	7.20680769e-01
	-7.20680769e-02

525	3.49931316e-07
	4.31552953e-02
	-4.31552953e-03

526	3.50066230e-07
	-4.16132817e-02
	4.16132817e-03

527	3.50201144e-07
	-1.26378868e-01
	1.26378868e-02

528	3.50336057e-07
	-2.11135374e-01
	2.11135374e-02

529	3.50605885e-07
	-3.80596781e-01
	3.80596781e-02

530	3.51145540e-07
	-7.19142743e-01
	7.19142743e-02

531	3.51685195e-07
	-1.05686197e+00
	1.05686197e-01

532	3.52224850e-07
	-1.39336622e+00
	1.39336622e-01

533	3.52764505e-07
	-1.72826864e+00
	1.72826864e-01

534	3.53304161e-07
	-2.06118422e+00
	2.06118422e-01

535	3.53843816e-07
	-2.39173024e+00
	2.39173024e-01

536	3.54383471e-07
	-2.71952671e+00
	2.71952671e-01

537	3.54923126e-07
	-3.04419678e+00
	3.04419678e-01

538	3.55462781e-07
	-3.36536721e+00
	3.36536721e-01

539	3.56002436e-07
	-3.68266877e+00
	3.68266877e-01

540	3.56542091e-07
	-3.99573670e+00
	3.99573670e-01

541	3.57081747e-07
	-4.30421109e+00
	4.30421109e-01

542	3.57621402e-07
	-4.60773731e+00
	4.60773731e-01

543	3.58161057e-07
	-4.90596643e+00
	4.90596643e-01

544	3.58700712e-07
	-5.19855560e+00
	5.19855560e-01

545	3.59240367e-07
	-5.48516845e+00
	5.48516845e-01

546	3.59780022e-07
	-5.76547550e+00
	5.76547550e-01

547	3.60319677e-07
	-6.03915449e+00
	6.03915449e-01

548	3.60859333e-07
	-6.30589081e+00
	6.30589081e-01

549	3.61398988e-07
	-6.56537781e+00
	6.56537781e-01

550	3.61938643e-07
	-6.81731718e+00
	6.81731718e-01

551	3.62478298e-07
	-7.06141929e+00
	7.06141929e-01

552	3.63017953e-07
	-7.29740352e+00
	7.29740352e-01

553	3.63557608e-07
	-7.52499858e+00
	7.52499858e-01

554	3.64097263e-07
	-7.74394281e+00
	7.74394281e-01

555	3.64636919e-07
	-7.95398453e+00
	7.95398453e-01

556	3.65176574e-07
	-8.15488227e+00
	8.15488227e-01

557	3.65716229e-07
	-8.34640506e+00
	8.34640506e-01

558	3.66255884e-07
	-8.52833274e+00
	8.52833274e-01

559	3.66795539e-07
	-8.70045616e+00
	8.70045616e-01

560	3.67335194e-07
	-8.86257744e+00
	8.86257744e-01

561	3.67874849e-07
	-9.01451021e+00
	9.01451021e-01

562	3.68414505e-07
	-9.15607980e+00
	9.15607980e-01

563	3.68954160e-07